<?xml version="1.0"?>
<VTKFile type="ImageData" version="0.1" byte_order="LittleEndian">
<ImageData WholeExtent="0 16 0 16 0 16" Origin="0 0 0" Spacing="1 1 1">
<Piece Extent="0 16 0 16 0 16">
<PointData>
</PointData>
<CellData>
<DataArray type="Int32" Name="Spin" format="ascii" RangeMin="0" RangeMax="19">
1 1 1 3 3 3 3 0 0 14 14 14 14 14 18 18 18 3 3 3 3 3 0 0 0 14 14 14 14 14 14 18 7 7 3 3 3 0 0 0 0 14 14 14 14 14 14 2 12 7 3 3 0 0 0 0 8 14 14 14 2 2 2 2 12 12 12 12 0 0 0 8 8 8 2 2 2 2 2 2 12 12 12 12 12 0 0 8 8 2 2 2 2 2 2 2 12 12 12 12 12 12 8 8 8 2 2 2 2 2 2 9 9 12 12 12 12 12 8 8 8 2 2 2 2 2 9 9 9 9 12 12 12 12 16 16 2 2 2 2 9 9 9 9 9 9 9 12 1 16 16 16 16 6 6 6 6 9 9 9 9 9 1 1 1 1 16 16 16 6 6 6 6 6 9 9 9 1 1 1 1 1 16 16 16 6 6 6 6 6 6 9 1 1 1 1 1 1 1 16 16 6 6 6 6 6 6 6 1 1 1 1 1 1 1 16 16 6 6 6 6 6 6 6 1 1 1 1 1 1 1 3 16 6 6 6 6 6 6 18 1 1 1 1 1 3 3 3 0 14 14 14 6 18 18 18 7 7 7 7 3 3 3 0 8 14 14 14 14 14 18 18 7 7 7 7 3 3 0 0 8 8 14 14 14 14 14 7 7 7 7 7 7 0 0 8 8 8 8 14 14 14 2 7 7 7 7 7 7 0 8 8 8 8 8 2 2 2 2 12 12 12 12 12 7 0 8 8 8 8 8 2 2 2 2 12 12 12 12 12 12 8 8 8 8 8 8 2 2 2 2 12 12 12 12 12 12 12 8 8 8 8 2 2 2 2 2 12 12 12 12 12 12 12 8 8 8 8 2 2 2 2 9 9 9 12 12 12 12 12 16 16 8 8 2 6 6 9 9 9 9 9 12 12 12 16 16 16 16 16 6 6 6 6 9 9 9 9 1 1 16 16 16 16 16 16 6 6 6 6 6 9 9 1 1 1 1 16 16 16 16 16 6 6 6 6 6 6 1 1 1 1 1 16 16 16 16 16 6 6 6 6 6 6 1 1 1 1 1 1 16 16 16 16 6 6 6 6 6 6 1 1 1 1 1 1 16 16 16 16 6 6 6 6 6 6 1 1 1 1 1 1 3 3 16 14 14 6 6 6 6 18 7 7 7 7 7 7 7 8 8 8 8 14 14 14 7 7 7 7 7 7 7 7 8 8 8 8 8 8 14 14 7 7 7 7 7 7 7 7 8 8 8 8 8 8 8 2 7 7 7 7 7 7 7 7 8 8 8 8 8 8 8 2 2 7 12 12 12 7 7 8 8 8 8 8 8 8 2 2 12 12 12 12 12 12 12 8 8 8 8 8 8 8 2 2 12 12 12 12 12 12 12 12 8 8 8 8 8 8 2 2 12 12 12 12 12 12 12 12 8 8 8 8 8 2 2 2 12 12 12 12 12 12 12 16 16 16 16 8 8 6 6 9 9 12 12 12 12 12 16 16 16 16 16 16 6 6 6 6 9 9 9 12 12 16 16 16 16 16 16 16 6 6 6 6 6 9 9 1 1 1 16 16 16 16 16 16 6 6 6 6 6 6 1 1 1 1 16 16 16 16 16 16 6 6 6 6 6 6 1 1 1 1 1 16 16 16 16 16 6 6 6 6 6 6 1 1 1 1 1 16 16 16 16 16 6 6 6 6 6 6 7 7 7 7 7 7 16 16 16 16 6 6 6 6 6 7 7 7 7 7 7 7 7 8 8 8 8 8 8 6 7 7 7 7 7 7 7 7 7 8 8 8 8 8 8 8 7 7 7 7 7 7 7 7 8 8 8 8 8 8 8 8 7 7 7 7 7 7 7 7 8 8 8 8 8 8 8 8 7 7 12 12 7 7 7 7 8 8 8 8 8 8 8 8 12 12 12 12 12 12 12 8 8 8 8 8 8 8 8 2 12 12 12 12 12 12 12 12 8 8 8 8 8 8 8 12 12 12 12 12 12 12 12 12 8 8 8 8 8 8 8 12 12 12 12 12 12 12 12 16 16 16 16 8 8 11 11 11 12 12 12 12 12 12 16 16 16 16 16 16 16 6 6 6 6 12 12 12 12 16 16 16 16 16 16 16 16 6 6 6 6 6 6 12 16 16 16 16 16 16 16 16 16 6 6 6 6 6 6 1 1 16 16 16 16 16 16 16 16 6 6 6 6 6 1 1 1 16 16 16 16 16 16 16 16 6 6 6 6 6 7 7 7 7 16 16 16 16 16 16 16 6 6 6 6 6 7 7 7 7 7 7 16 16 16 16 16 6 6 6 6 7 7 7 7 7 7 7 7 8 8 8 8 8 8 7 7 7 7 7 7 7 7 7 7 8 8 8 8 8 8 8 7 7 7 7 7 7 7 7 8 8 8 8 8 8 8 8 7 7 7 7 7 7 7 7 8 8 8 8 8 8 8 8 7 7 12 7 7 7 7 7 8 8 8 8 8 8 8 8 12 12 12 12 12 12 12 8 8 8 8 8 8 8 8 8 12 12 12 12 12 12 12 12 8 8 8 8 8 8 8 12 12 12 12 12 12 12 12 12 19 8 8 8 8 8 11 11 12 12 12 12 12 12 12 16 16 16 16 16 11 11 11 11 11 12 12 12 12 12 16 16 16 16 16 16 11 11 11 11 11 11 12 12 12 16 16 16 16 16 16 16 16 11 11 11 11 11 11 12 16 16 16 16 16 16 16 16 16 11 11 11 11 11 11 1 16 16 16 16 16 16 16 16 16 11 11 11 11 11 11 7 16 16 16 16 16 16 16 16 16 11 11 11 11 11 7 7 7 7 16 16 16 16 16 16 16 11 11 11 11 7 7 7 7 7 7 7 16 16 16 16 16 8 11 11 7 7 7 7 7 7 7 7 7 8 8 8 13 5 5 5 7 7 7 7 7 7 7 7 7 8 8 8 8 13 5 5 7 7 7 7 7 7 7 7 7 8 8 8 8 8 13 10 7 7 7 7 7 7 7 7 8 8 8 8 8 8 8 10 10 7 7 7 7 7 7 7 8 8 8 8 8 8 8 10 10 10 12 12 12 12 7 19 19 8 8 8 8 8 8 10 10 12 12 12 12 12 12 19 19 19 8 8 8 8 11 10 10 12 12 12 12 12 12 19 19 19 19 8 8 11 11 11 11 12 12 12 12 12 12 16 16 16 16 16 11 11 11 11 11 11 12 12 12 12 16 16 16 16 16 16 11 11 11 11 11 11 11 12 12 16 16 16 16 16 16 16 11 11 11 11 11 11 11 11 16 16 16 16 16 16 16 16 11 11 11 11 11 11 11 11 16 16 16 16 16 16 16 16 11 11 11 11 11 11 11 7 16 16 16 16 16 16 16 16 16 11 11 11 11 11 7 7 7 7 16 16 16 16 16 16 16 11 11 11 11 11 7 7 7 7 7 7 16 16 16 16 5 5 5 5 11 7 7 7 7 7 7 7 17 17 17 13 5 5 5 5 5 7 7 7 7 7 7 7 17 17 13 13 13 13 5 5 5 7 7 7 7 7 7 7 17 13 13 13 13 13 13 10 10 7 7 7 7 7 7 7 19 19 13 13 13 13 13 10 10 10 10 7 7 7 7 19 19 19 19 13 13 13 13 10 10 10 10 12 12 7 19 19 19 19 19 19 13 13 10 10 10 10 10 12 12 12 19 19 19 19 19 19 19 13 10 10 10 10 10 12 12 12 19 19 19 19 19 19 19 11 11 11 10 10 12 12 12 12 19 19 19 19 19 19 11 11 11 11 11 11 11 12 12 12 16 16 16 16 16 11 11 11 11 11 11 11 11 11 12 16 16 16 16 16 16 16 11 11 11 11 11 11 11 11 16 16 16 16 16 16 16 16 11 11 11 11 11 11 11 11 16 16 16 16 16 16 16 16 11 11 11 11 11 11 11 11 16 16 16 16 16 16 16 16 11 11 11 11 11 11 7 7 7 7 16 16 16 16 16 16 5 11 11 11 11 11 7 7 7 7 7 17 17 17 17 5 5 5 5 5 5 7 7 7 7 7 17 17 17 17 17 13 5 5 5 5 5 5 7 7 7 7 17 17 17 17 13 13 13 5 5 5 5 10 10 7 7 7 7 17 17 17 13 13 13 13 13 5 10 10 10 7 7 7 7 19 19 13 13 13 13 13 13 10 10 10 10 10 7 7 19 19 19 19 13 13 13 13 13 10 10 10 10 10 10 19 19 19 19 19 19 13 13 13 10 10 10 10 10 10 10 19 19 19 19 19 19 19 13 13 10 10 10 10 10 10 10 19 19 19 19 19 19 19 19 11 11 10 10 10 10 10 12 19 19 19 19 19 19 19 11 11 11 11 11 11 11 11 12 19 19 19 19 19 19 11 11 11 11 11 11 11 11 11 11 16 16 16 16 16 16 11 11 11 11 11 11 11 11 11 16 16 16 16 16 16 16 11 11 11 11 11 11 11 11 11 16 16 16 16 16 16 16 11 11 11 11 11 11 11 11 11 16 16 16 16 16 16 16 16 11 11 11 11 11 11 11 7 7 7 17 17 17 17 17 5 5 5 5 5 11 11 7 7 7 7 17 17 17 17 17 5 5 5 5 5 5 5 5 7 7 17 17 17 17 17 17 5 5 5 5 5 5 5 10 7 7 17 17 17 17 17 17 13 13 5 5 5 5 5 10 10 7 17 17 17 17 17 13 13 13 13 5 5 10 10 10 10 10 17 17 17 17 13 13 13 13 13 13 10 10 10 10 10 10 19 19 19 19 19 13 13 13 13 13 10 10 10 10 10 10 19 19 19 19 19 19 13 13 13 10 10 10 10 10 10 10 19 19 19 19 19 19 19 13 13 10 10 10 10 10 10 10 19 19 19 19 19 19 19 4 11 10 10 10 10 10 10 10 19 19 19 19 19 19 4 4 11 11 11 11 10 11 10 10 19 19 19 19 19 4 4 11 11 11 11 11 11 11 11 11 19 19 19 19 4 4 4 11 11 11 11 11 11 11 11 11 16 16 16 16 16 4 11 11 11 11 11 11 11 11 11 11 16 16 16 16 16 16 11 11 11 11 11 11 11 11 18 18 17 17 17 17 17 17 5 5 11 11 11 11 11 18 18 17 17 17 17 17 17 17 5 5 5 5 5 5 5 5 18 17 17 17 17 17 17 17 5 5 5 5 5 5 5 18 18 17 17 17 17 17 17 17 5 5 5 5 5 5 5 10 10 17 17 17 17 17 17 17 13 5 5 5 5 5 5 10 10 17 17 17 17 17 17 13 13 13 13 5 5 10 10 10 10 10 17 17 17 17 17 13 13 13 13 13 10 10 10 10 10 10 19 19 19 19 19 13 13 13 13 13 10 10 10 10 10 10 19 19 19 19 19 19 13 13 13 10 10 10 10 10 10 10 19 19 19 19 19 19 4 13 13 10 10 10 10 10 10 10 19 19 19 19 19 4 4 4 4 10 10 10 10 10 10 10 19 19 19 19 4 4 4 4 4 11 11 10 10 10 10 10 19 19 19 4 4 4 4 4 11 11 11 11 11 11 11 11 19 19 4 4 4 4 4 4 11 11 11 11 11 11 11 18 1 4 4 4 4 4 4 11 11 11 11 11 11 18 18 18 1 17 17 4 4 4 4 11 11 11 11 11 11 18 18 18 17 17 17 17 17 17 5 5 5 5 5 18 18 18 18 18 17 17 17 17 17 17 5 5 5 5 5 5 18 18 18 17 17 17 17 17 17 17 5 5 5 5 5 5 5 18 18 17 17 17 17 17 17 17 5 5 5 5 5 5 18 18 18 17 17 17 17 17 17 17 15 5 5 5 5 5 5 10 10 17 17 17 17 17 17 17 13 13 5 5 5 5 10 10 10 10 17 17 17 17 17 13 13 13 13 13 10 10 10 10 10 10 17 17 17 17 13 13 13 13 13 13 10 10 10 10 10 10 19 19 19 19 19 13 13 13 13 10 10 10 10 10 10 10 19 19 19 19 19 4 4 4 4 10 10 10 10 10 10 10 19 19 19 19 4 4 4 4 4 10 10 10 10 10 10 10 19 19 19 4 4 4 4 4 4 4 10 10 10 10 10 10 19 19 4 4 4 4 4 4 4 11 11 11 10 11 9 1 1 4 4 4 4 4 4 4 4 11 11 11 11 18 18 1 1 1 4 4 4 4 4 4 11 11 11 11 18 18 18 1 1 1 4 4 4 4 4 4 11 11 18 18 18 18 18 18 1 17 17 17 17 17 5 5 5 5 18 18 18 18 18 18 17 17 17 17 17 17 5 5 5 5 5 18 18 18 18 18 17 17 17 17 17 17 5 5 5 5 5 5 18 18 18 3 3 17 17 17 17 17 15 5 5 5 5 18 18 18 18 3 3 17 17 17 17 17 15 15 5 5 5 5 18 10 3 3 3 17 17 17 17 15 15 15 15 5 5 5 10 10 10 3 3 0 17 17 17 15 15 15 15 15 10 10 10 10 10 10 0 0 0 17 17 15 15 15 15 15 10 10 10 10 10 10 0 19 19 19 4 4 13 13 13 10 10 10 10 10 10 10 19 19 19 4 4 4 4 4 4 10 10 10 10 10 10 10 19 19 4 4 4 4 4 4 4 4 10 10 10 10 10 10 19 4 4 4 4 4 4 4 4 4 10 10 10 9 9 9 1 4 4 4 4 4 4 4 4 4 9 9 9 9 9 1 1 4 4 4 4 4 4 4 4 4 9 9 9 18 18 1 1 1 4 4 4 4 4 4 4 18 18 18 18 18 18 1 1 1 1 4 4 4 4 4 5 18 18 18 18 18 18 1 1 1 1 17 17 17 5 5 5 18 18 18 18 18 18 1 1 1 17 17 17 17 5 5 5 5 18 18 18 18 18 18 3 17 17 17 17 17 5 5 5 5 5 18 18 18 18 3 3 3 3 17 17 15 15 15 5 5 18 18 18 18 18 3 3 3 3 0 17 15 15 15 15 5 5 18 18 18 3 3 3 3 0 0 0 15 15 15 15 14 14 5 18 10 3 3 3 0 0 0 0 15 15 15 15 14 14 10 10 10 10 3 0 0 0 0 0 15 15 15 15 14 2 10 10 10 10 10 0 0 0 0 4 15 15 15 2 2 2 10 10 10 10 10 0 0 4 4 4 4 4 4 2 2 2 10 10 9 9 9 19 4 4 4 4 4 4 4 4 2 2 9 9 9 9 9 9 4 4 4 4 4 4 4 4 4 9 9 9 9 9 9 1 4 4 4 4 4 4 4 4 9 9 9 9 9 9 1 1 1 4 4 4 4 4 4 4 9 9 9 9 18 1 1 1 1 1 4 4 4 4 4 4 6 18 18 18 18 1 1 1 1 1 1 4 4 4 4 6 18 18 18 18 18 18 1 1 1 1 1 17 17 5 5 18 18 18 18 18 18 18 1 1 1 3 17 17 17 5 5 5 18 18 18 18 18 18 1 3 3 3 17 17 17 15 5 5 5 18 18 18 18 18 3 3 3 3 3 0 15 15 14 14 14 18 18 18 18 3 3 3 3 3 0 0 15 15 14 14 14 14 18 18 18 3 3 3 3 0 0 0 15 15 14 14 14 14 14 18 3 3 3 3 0 0 0 0 15 15 14 14 14 14 14 2 10 3 3 0 0 0 0 0 15 15 14 14 2 2 2 2 10 10 0 0 0 0 0 0 15 2 2 2 2 2 2 2 9 9 9 0 0 0 4 4 4 4 2 2 2 2 2 9 9 9 9 9 4 4 4 4 4 4 4 2 2 2 9 9 9 9 9 9 4 4 4 4 4 4 4 4 9 9 9 9 9 9 9 1 1 4 4 4 4 4 4 4 9 9 9 9 9 9 1 1 1 1 4 4 4 4 4 6 6 9 9 9 9 1 1 1 1 1 1 4 4 4 6 6 6 6 9 9 18 1 1 1 1 1 1 4 4 4 6 6 6 18 18 18 18 1 1 1 1 1 1 1 4 6 6 6 18 18 18 18 18 1 1 1 1 1 3 3 15 15 5 18 18 18 18 18 18 18 1 1 3 3 3 3 15 15 14 14 18 18 18 18 18 1 3 3 3 3 3 0 0 14 14 14 14 18 18 18 18 3 3 3 3 3 0 0 0 14 14 14 14 14 18 18 18 3 3 3 3 0 0 0 0 14 14 14 14 14 14 18 3 3 3 3 0 0 0 0 0 14 14 14 14 14 2 2 2 3 3 0 0 0 0 0 0 14 14 2 2 2 2 2 9 9 0 0 0 0 0 0 2 2 2 2 2 2 2 2 9 9 9 0 0 0 0 4 2 2 2 2 2 2 2 9 9 9 9 9 0 4 4 4 4 2 2 2 2 2 9 9 9 9 9 9 1 4 4 4 4 4 2 2 9 9 9 9 9 9 9 1 1 1 4 4 4 4 4 6 9 9 9 9 9 9 1 1 1 1 4 4 4 4 6 6 6 9 9 9 9 1 1 1 1 1 1 4 4 6 6 6 6 6 9 9 1 1 1 1 1 1 1 1 6 6 6 6 6 6 6 18 18 1 1 1 1 1 1 1 6 6 6 6 6 18 18 18 18 1 1 1 1 1 3 3 3 14 14 6 18 18 18 18 18 1 1 1 3 3 3 3 0 14 14 14 18 18 18 18 18 1 1 3 3 3 3 0 0 14 14 14 14 18 18 18 18 3 3 3 3 3 0 0 0 14 14 14 14 14 18 18 18 3 3 3 3 0 0 0 0 14 14 14 14 14 14 18 2 3 3 3 0 0 0 0 0 14 14 14 14 2 2 2 12 12 3 0 0 0 0 0 0 14 2 2 2 2 2 2 12 12 12 0 0 0 0 0 2 2 2 2 2 2 2 2 9 12 12 12 0 0 0 0 2 2 2 2 2 2 2 9 9 9 12 12 12 0 4 4 2 2 2 2 2 2 9 9 9 9 9 12 12 12 4 4 4 2 2 2 9 9 9 9 9 9 9 1 1 1 4 4 4 6 6 6 6 9 9 9 9 9 1 1 1 1 1 4 4 6 6 6 6 6 9 9 9 1 1 1 1 1 1 16 6 6 6 6 6 6 6 9 1 1 1 1 1 1 1 1 6 6 6 6 6 6 6 6 1 1 1 1 1 1 1 1 6 6 6 6 6 6 6 18 1 1 1 1 1 1 1 3 3 14 6 6 6 18 18 18 18 1 1 1 1 3 3 3 0 14 14 14 18 18 18 18
</DataArray>
</CellData>
</Piece>
</ImageData>
</VTKFile>
